 Gaussian 09, Revision A.02,
 Gaussian 09:  EM64L-G09RevA.02 11-Jun-2009

 ----------------------------------------------------------------------
 # irc=(calcfc,recorrect=always,maxpoints=100,recalc=3) b3lyp/6-31++g(d
 ,p) nosymm
 ----------------------------------------------------------------------

 -----------
 Veresterung
 -----------
 Symbolic Z-matrix:
 Charge =  0 Multiplicity = 1

 SCF Done:  E(RB3LYP) =  -305.292980039     A.U. after   12 cycles
 SCF Done:  E(RB3LYP) =  -305.292997367     A.U. after   11 cycles
 SCF Done:  E(RB3LYP) =  -305.293053465     A.U. after   10 cycles
 SCF Done:  E(RB3LYP) =  -305.293037851     A.U. after   10 cycles
 SCF Done:  E(RB3LYP) =  -305.293025646     A.U. after   10 cycles
 SCF Done:  E(RB3LYP) =  -305.293015764     A.U. after    9 cycles
 SCF Done:  E(RB3LYP) =  -305.293007896     A.U. after    9 cycles
 SCF Done:  E(RB3LYP) =  -305.293001691     A.U. after    9 cycles
 SCF Done:  E(RB3LYP) =  -305.293019232     A.U. after   10 cycles
 SCF Done:  E(RB3LYP) =  -305.293098634     A.U. after   10 cycles
 SCF Done:  E(RB3LYP) =  -305.293380038     A.U. after   11 cycles
 SCF Done:  E(RB3LYP) =  -305.293380661     A.U. after    9 cycles
 SCF Done:  E(RB3LYP) =  -305.293427770     A.U. after   10 cycles
 SCF Done:  E(RB3LYP) =  -305.293428270     A.U. after    8 cycles
 SCF Done:  E(RB3LYP) =  -305.293473596     A.U. after   10 cycles
 SCF Done:  E(RB3LYP) =  -305.293473857     A.U. after    8 cycles
 SCF Done:  E(RB3LYP) =  -305.293516787     A.U. after   10 cycles
 SCF Done:  E(RB3LYP) =  -305.293517056     A.U. after    8 cycles
 SCF Done:  E(RB3LYP) =  -305.293557344     A.U. after   10 cycles
 SCF Done:  E(RB3LYP) =  -305.293557687     A.U. after    8 cycles

                          Input orientation:
 ---------------------------------------------------------------------
 Center     Atomic      Atomic             Coordinates (Angstroms)
 Number     Number       Type             X           Y           Z
 ---------------------------------------------------------------------
      1          6           0       -1.608927    1.483128   -0.055523
      2          1           0       -2.558129    2.003333    0.105595
      3          1           0       -0.821224    1.935972    0.557082
      4          1           0       -1.337131    1.527726   -1.115955
      5          6           0        2.015218    0.234390   -0.190700
      6          1           0        1.604674    0.489319   -1.200318
      7          8           0       -0.646686   -0.610327    0.139174
      8          1           0       -0.346992   -0.737040    1.055851
      9          8           0       -1.874070    0.143300    0.347732
     10          8           0        2.304631   -1.048482   -0.200515
     11          1           0        2.092126   -1.539209   -1.022269
 ---------------------------------------------------------------------

 Alpha  occ. eigenvalues --  -19.24743 -19.22597 -19.22575 -10.26522 -10.24386
 Alpha  occ. eigenvalues --   -1.13267  -1.11478  -0.92881  -0.68728  -0.67913
 Alpha  occ. eigenvalues --   -0.55284  -0.54436  -0.48723  -0.47353  -0.43317
 Alpha  occ. eigenvalues --   -0.42887  -0.41217  -0.38327  -0.31937  -0.28525
 Alpha  occ. eigenvalues --   -0.22842
 Alpha virt. eigenvalues --   -0.06337  -0.03092  -0.00532  -0.00075   0.01071
 Alpha virt. eigenvalues --    0.02585   0.03871   0.04934   0.07085   0.07622
 Alpha virt. eigenvalues --    0.08090   0.10532   0.11611   0.12790   0.13957

 Mulliken atomic charges:
              1
     1  C   -0.265695
     2  H    0.166351
     3  H    0.176006
     4  H    0.146666
     5  C   -0.206570
     6  H    0.154993
     7  O   -0.390957
     8  H    0.370770
     9  O   -0.205331
    10  O   -0.280716
    11  H    0.334483
 Sum of Mulliken atomic charges =   0.00000

 Dipole moment (field-independent basis, Debye):
    X=             -0.2327    Y=             -0.1118    Z=             -1.8030  Tot=              1.8213
 Quadrupole moment (field-independent basis, Debye-Ang):
   XX=            -36.4475   YY=            -28.1054   ZZ=            -27.8148
   XY=             -7.0807   XZ=             -5.6562   YZ=              0.3974

  Exact polarizability:   0.000   0.000   0.000   0.000   0.000   0.000
 Approx polarizability:  60.967  -8.600  64.967   0.534  -0.261  53.147

 Normal termination of Gaussian 09 at Mon May 11 13:36:21 2020.
