 Gaussian 09, Revision A.02,
 Gaussian 09:  EM64L-G09RevA.02 11-Jun-2009

 ---------------------
 # opt=calcfc hf/3-21g
 ---------------------

 -----------
 Veresterung
 -----------
 Symbolic Z-matrix:
 Charge =  0 Multiplicity = 1

 SCF Done:  E(RHF) =  -301.950348261     A.U. after   16 cycles

  Exact polarizability:   0.000   0.000   0.000   0.000   0.000   0.000
 Approx polarizability:  39.926  -1.442  22.445   5.469   2.316  16.992

 SCF Done:  E(RHF) =  -301.989289652     A.U. after   15 cycles
 SCF Done:  E(RHF) =  -302.029059264     A.U. after   16 cycles
 SCF Done:  E(RHF) =  -302.044159201     A.U. after   14 cycles
 SCF Done:  E(RHF) =  -302.062683713     A.U. after   15 cycles
 SCF Done:  E(RHF) =  -302.074476748     A.U. after   15 cycles
 SCF Done:  E(RHF) =  -301.681317657     A.U. after   15 cycles
 SCF Done:  E(RHF) =  -302.077975437     A.U. after   15 cycles
 SCF Done:  E(RHF) =  -302.080372907     A.U. after   13 cycles
 SCF Done:  E(RHF) =  -302.082523828     A.U. after   15 cycles
 SCF Done:  E(RHF) =  -302.101004930     A.U. after   11 cycles
 SCF Done:  E(RHF) =  -302.101010611     A.U. after   11 cycles
 SCF Done:  E(RHF) =  -302.101015489     A.U. after   11 cycles
 SCF Done:  E(RHF) =  -302.101020038     A.U. after   12 cycles
 SCF Done:  E(RHF) =  -302.101021608     A.U. after   11 cycles
 SCF Done:  E(RHF) =  -302.101022033     A.U. after   10 cycles
 SCF Done:  E(RHF) =  -302.101022402     A.U. after   10 cycles
 SCF Done:  E(RHF) =  -302.101023030     A.U. after   10 cycles
 SCF Done:  E(RHF) =  -302.101023371     A.U. after   10 cycles
 SCF Done:  E(RHF) =  -302.101023400     A.U. after    8 cycles
 Optimization completed.
    -- Stationary point found.

                         Standard orientation:
 ---------------------------------------------------------------------
 Center     Atomic      Atomic             Coordinates (Angstroms)
 Number     Number       Type             X           Y           Z
 ---------------------------------------------------------------------
      1          6           0        2.103212    0.377524   -0.002929
      2          1           0        1.564580    1.259433   -0.321889
      3          1           0        2.467382    0.525131    1.001707
      4          1           0        2.948234    0.205896   -0.658632
      5          6           0       -1.152121    0.252242    0.373535
      6          1           0       -0.914289    0.157885    1.419218
      7          8           0        1.223844   -0.774295    0.046824
      8          1           0        0.920753   -0.998112   -0.843392
      9          8           0       -1.127773    1.284934   -0.226788
     10          8           0       -1.518207   -0.915549   -0.213409
     11          1           0       -1.316114   -1.689550    0.326340
 ---------------------------------------------------------------------

 The electronic state is 1-A.
 Alpha  occ. eigenvalues --  -20.49630 -20.45521 -20.44979 -11.33121 -11.21790
 Alpha  occ. eigenvalues --   -1.45713  -1.36926  -1.34983  -0.93631  -0.84926
 Alpha  occ. eigenvalues --   -0.77426  -0.68161  -0.64005  -0.63701  -0.60451
 Alpha  occ. eigenvalues --   -0.58474  -0.55831  -0.49857  -0.46301  -0.45192
 Alpha  occ. eigenvalues --   -0.43787
 Alpha virt. eigenvalues --    0.20230   0.24324   0.27834   0.30771   0.32886
 Alpha virt. eigenvalues --    0.33965   0.36105   0.41006   0.51704   0.56374
 Alpha virt. eigenvalues --    0.89957   0.93434   0.95612   0.99565   1.02858

 Mulliken atomic charges:
              1
     1  C   -0.292725
     2  H    0.215673
     3  H    0.216074
     4  H    0.188058
     5  C    0.668547
     6  H    0.192636
     7  O   -0.699878
     8  H    0.389869
     9  O   -0.579544
    10  O   -0.712811
    11  H    0.414100
 Sum of Mulliken atomic charges =   0.00000

 Dipole moment (field-independent basis, Debye):
    X=              1.6751    Y=             -1.9675    Z=              1.5443  Tot=              3.0103
 Quadrupole moment (field-independent basis, Debye-Ang):
   XX=            -29.2495   YY=            -31.1861   ZZ=            -27.7012
   XY=              5.3381   XZ=             -5.8420   YZ=              1.0384

 Normal termination of Gaussian 09 at Thu May  7 09:10:42 2020.
