 Gaussian 09, Revision A.02,
 Gaussian 09:  EM64L-G09RevA.02 11-Jun-2009

 ----------------------------------------------------------------------
 # irc=(calcfc,recorrect=always,maxpoints=100,recalc=1) hf/6-311++g(df,
 pd) nosymm
 ----------------------------------------------------------------------

 -----------------------------------
 opt Veresterung-verseifung mit scan
 -----------------------------------
 Symbolic Z-matrix:
 Charge =  0 Multiplicity = 1

 SCF Done:  E(RHF) =  -303.815980879     A.U. after   13 cycles
 SCF Done:  E(RHF) =  -303.816661633     A.U. after   12 cycles
 SCF Done:  E(RHF) =  -303.816662962     A.U. after    7 cycles
 SCF Done:  E(RHF) =  -303.818484704     A.U. after   12 cycles
 SCF Done:  E(RHF) =  -303.818486192     A.U. after    7 cycles
 SCF Done:  E(RHF) =  -303.820998837     A.U. after   12 cycles
 SCF Done:  E(RHF) =  -303.821000954     A.U. after    7 cycles
 SCF Done:  E(RHF) =  -303.823779694     A.U. after   11 cycles
 SCF Done:  E(RHF) =  -303.823781201     A.U. after    8 cycles
 SCF Done:  E(RHF) =  -303.826595383     A.U. after   11 cycles
 SCF Done:  E(RHF) =  -303.926803755     A.U. after    9 cycles
 SCF Done:  E(RHF) =  -303.926803955     A.U. after    6 cycles
 SCF Done:  E(RHF) =  -303.926843912     A.U. after   10 cycles
 SCF Done:  E(RHF) =  -303.926844112     A.U. after    6 cycles
 SCF Done:  E(RHF) =  -303.926882689     A.U. after   10 cycles
 SCF Done:  E(RHF) =  -303.926882888     A.U. after    6 cycles
 SCF Done:  E(RHF) =  -303.926920537     A.U. after   10 cycles
 SCF Done:  E(RHF) =  -303.926920758     A.U. after    6 cycles
 SCF Done:  E(RHF) =  -303.926957897     A.U. after   10 cycles
 SCF Done:  E(RHF) =  -303.926958151     A.U. after    6 cycles

                          Input orientation:
 ---------------------------------------------------------------------
 Center     Atomic      Atomic             Coordinates (Angstroms)
 Number     Number       Type             X           Y           Z
 ---------------------------------------------------------------------
      1          6           0       -0.583839    0.534887   -0.377645
      2          1           0       -0.277001    1.449863   -0.870934
      3          8           0       -1.259987    0.496393    0.589765
      4          8           0       -0.111703   -0.507273   -1.016882
      5          6           0       -0.379803   -1.783576   -0.473656
      6          1           0        0.106623   -2.492505   -1.124777
      7          1           0        0.021273   -1.859325    0.527294
      8          1           0       -1.444399   -1.970646   -0.446383
      9          8           0        1.919012    1.112402    0.998858
     10          1           0        2.843042    0.996197    1.130352
     11          1           0        1.537969    1.262390    1.846790
 ---------------------------------------------------------------------

 Alpha  occ. eigenvalues --  -20.59801 -20.56839 -20.53759 -11.36294 -11.27924
 Alpha  occ. eigenvalues --   -1.47352  -1.36920  -1.36765  -0.99047  -0.80845
 Alpha  occ. eigenvalues --   -0.74007  -0.73705  -0.67528  -0.67439  -0.59567
 Alpha  occ. eigenvalues --   -0.58953  -0.54861  -0.52425  -0.51836  -0.45972
 Alpha  occ. eigenvalues --   -0.45158
 Alpha virt. eigenvalues --    0.03926   0.05227   0.06400   0.07179   0.08408
 Alpha virt. eigenvalues --    0.08916   0.11846   0.13144   0.14366   0.16266
 Alpha virt. eigenvalues --    0.17548   0.17969   0.19340   0.20270   0.21028

 Mulliken atomic charges:
              1
     1  C    0.037011
     2  H    0.184141
     3  O   -0.343952
     4  O   -0.060559
     5  C   -0.276563
     6  H    0.139964
     7  H    0.149245
     8  H    0.157177
     9  O   -0.523304
    10  H    0.272667
    11  H    0.264174
 Sum of Mulliken atomic charges =   0.00000

 Dipole moment (field-independent basis, Debye):
    X=              2.3875    Y=             -0.9317    Z=              0.4658  Tot=              2.6049
 Quadrupole moment (field-independent basis, Debye-Ang):
   XX=            -27.0844   YY=            -26.1923   ZZ=            -27.6830
   XY=              2.5425   XZ=              7.2279   YZ=              0.9053

  Exact polarizability:   0.000   0.000   0.000   0.000   0.000   0.000
 Approx polarizability:  29.172  -0.785  28.748  -4.173   0.777  31.342

 Normal termination of Gaussian 09 at Wed May 13 14:47:06 2020.
